 Q-Chem 5.3 (devel), Q-Chem, Inc., Pleasanton, CA (2020)
 Q-Chem 5.3.2 for Intel X86 EM64T Linux

User input:
--------------------------------------------------------------
$comment
Hydrogen molecule
$end

$molecule
0 1
H 0.0 0.0 0.0
H 0.0 0.0 1.80
$end

$rem
method = ccsd
basis = sto-3g
print_qis = true
gui = 2
$end
--------------------------------------------------------------

             Standard Nuclear Orientation (Angstroms)
    I     Atom           X                Y                Z
 ----------------------------------------------------------------
    1      H       0.0000000000     0.0000000000    -0.9000000000
    2      H       0.0000000000     0.0000000000     0.9000000000
 ----------------------------------------------------------------

    2      -0.8288481480      1.99e-16  Convergence criterion met
 Total energy in the final basis set =       -0.8288481480
 CCSD total energy          = -0.96181696

             Orbital Energies (a.u.) and Symmetries
 --------------------------------------------------------------

 Alpha MOs, Restricted
 -- Occupied --
 -0.300
  1 Ag

 Beta MOs, Restricted
 -- Occupied --
 -0.300
  1 Ag

          Ground-State Mulliken Net Atomic Charges

     Atom                 Charge (a.u.)
  ----------------------------------------
      1 H                     0.000000
      2 H                    -0.000000
  ----------------------------------------
  Sum of atomic charges =     0.000000

                    Cartesian Multipole Moments
 -----------------------------------------------------------------
    Charge (ESU x 10^10)
                 0.0000
    Dipole Moment (Debye)
         X       0.0000      Y       0.0000      Z      -0.0000
       Tot       0.0000
    Quadrupole Moments (Debye-Ang)
        XX      -1.8753     XY       0.0000     YY      -1.8753
        XZ       0.0000     YZ       0.0000     ZZ      -0.9783

 Total job time:  2.52s(wall), 2.71s(cpu)
        *  Thank you very much for using Q-Chem.  Have a nice day.  *
